 Output coordinates in angstroms (scale by  1.889725989 to convert to a.u.)

  No.       Tag          Charge          X              Y              Z
 ---- ---------------- ---------- -------------- -------------- --------------
    1 C                    6.0000     0.24968754    -1.55969462     0.24955560
    2 H                    1.0000     0.90972142    -0.95806809     0.86313598
    3 C                    6.0000     0.44466731    -2.85318718    -0.00883610
    4 H                    1.0000     1.30678356    -3.36789943     0.40396012
    5 H                    1.0000    -0.23326101    -3.43029267    -0.62685331
    6 O                    8.0000    -0.80109546    -0.82805675    -0.22241265
    7 H                    1.0000    -1.36457688    -1.40595878    -0.76546780
    8 C                    6.0000    -0.31877303     2.70966589     0.35906404
    9 H                    1.0000    -1.22974807     2.09447236     0.28562983
   10 H                    1.0000    -0.32442862     3.47355073     1.15291793
   11 O                    8.0000     0.63634780     2.55474316    -0.39159035

         Total DFT energy =     -268.224257533658

                       DFT Final Molecular Orbital Analysis
                       ------------------------------------

 Vector    5  Occ=2.000000D+00  E=-1.017034D+01

 Vector    6  Occ=2.000000D+00  E=-1.072343D+00

 Vector    7  Occ=2.000000D+00  E=-1.066082D+00

 Vector    8  Occ=2.000000D+00  E=-7.546162D-01

 Vector    9  Occ=2.000000D+00  E=-6.329263D-01

 Vector   10  Occ=2.000000D+00  E=-6.254188D-01

 Vector   11  Occ=2.000000D+00  E=-5.006154D-01

 Vector   12  Occ=2.000000D+00  E=-4.931006D-01

 Vector   13  Occ=2.000000D+00  E=-4.806247D-01

 Vector   14  Occ=2.000000D+00  E=-4.338504D-01

 Vector   15  Occ=2.000000D+00  E=-3.919075D-01

 Vector   16  Occ=2.000000D+00  E=-3.899871D-01

 Vector   17  Occ=2.000000D+00  E=-3.884223D-01

 Vector   18  Occ=2.000000D+00  E=-3.595806D-01

 Vector   19  Occ=2.000000D+00  E=-2.585603D-01

 Vector   20  Occ=2.000000D+00  E=-2.328497D-01

 Vector   21  Occ=0.000000D+00  E=-4.332978D-02

 Vector   22  Occ=0.000000D+00  E= 3.473268D-02

 Vector   23  Occ=0.000000D+00  E= 6.236403D-02

 Vector   24  Occ=0.000000D+00  E= 1.130905D-01

 Vector   25  Occ=0.000000D+00  E= 1.258190D-01

 Vector   26  Occ=0.000000D+00  E= 1.402583D-01

 Vector   27  Occ=0.000000D+00  E= 1.805838D-01

 Vector   28  Occ=0.000000D+00  E= 1.889410D-01

 Vector   29  Occ=0.000000D+00  E= 2.253248D-01

 Vector   30  Occ=0.000000D+00  E= 2.852617D-01

 Vector   31  Occ=0.000000D+00  E= 3.592426D-01

 Vector   32  Occ=0.000000D+00  E= 5.022204D-01

     Multipole analysis of the density
     ---------------------------------

     L   x y z        total         alpha         beta         nuclear
     -   - - -        -----         -----         ----         -------
     0   0 0 0     -0.000000    -20.000000    -20.000000     40.000000

     1   1 0 0     -0.824980     -0.412490     -0.412490      0.000000
     1   0 1 0     -0.409713     -0.204857     -0.204857     -0.000000
     1   0 0 1      0.388924      0.194462      0.194462      0.000000

     2   2 0 0    -21.453703    -40.389836    -40.389836     59.325969
     2   1 1 0     -2.378766      4.302329      4.302329    -10.983423
     2   1 0 1      2.618314     -0.251379     -0.251379      3.121073
     2   0 2 0    -19.766023   -380.647772   -380.647772    741.529521
     2   0 1 1      4.165382     -2.855437     -2.855437      9.876256

 Total times  cpu:        6.6s     wall:        6.6s
