 Output coordinates in angstroms (scale by  1.889725989 to convert to a.u.)

  No.       Tag          Charge          X              Y              Z
 ---- ---------------- ---------- -------------- -------------- --------------
    1 C                    6.0000     0.00178663     1.88849102    -0.43604946
    2 H                    1.0000    -0.13662486     1.88035826    -1.50941072
    3 C                    6.0000    -0.35720213     2.90217756     0.34887288
    4 H                    1.0000    -0.81839596     3.79302491    -0.06171967
    5 H                    1.0000    -0.19472155     2.85717636     1.42074957
    6 O                    8.0000     0.58323013     0.76144632     0.06807757
    7 H                    1.0000     0.76250308     0.15444807    -0.67147799
    8 C                    6.0000    -0.63976521    -2.88698259    -0.03266937
    9 H                    1.0000    -1.39436365    -2.89586550     0.76997231
   10 H                    1.0000    -0.98798547    -3.24222080    -1.01567714
   11 O                    8.0000     0.50935395    -2.50757598     0.15525234

         Total DFT energy =     -268.220584756321

                       DFT Final Molecular Orbital Analysis
                       ------------------------------------

 Vector    5  Occ=2.000000D+00  E=-1.015694D+01

 Vector    6  Occ=2.000000D+00  E=-1.084070D+00

 Vector    7  Occ=2.000000D+00  E=-1.060583D+00

 Vector    8  Occ=2.000000D+00  E=-7.479167D-01

 Vector    9  Occ=2.000000D+00  E=-6.501721D-01

 Vector   10  Occ=2.000000D+00  E=-5.811112D-01

 Vector   11  Occ=2.000000D+00  E=-5.437466D-01

 Vector   12  Occ=2.000000D+00  E=-5.105147D-01

 Vector   13  Occ=2.000000D+00  E=-4.513431D-01

 Vector   14  Occ=2.000000D+00  E=-4.358639D-01

 Vector   15  Occ=2.000000D+00  E=-4.083994D-01

 Vector   16  Occ=2.000000D+00  E=-3.939810D-01

 Vector   17  Occ=2.000000D+00  E=-3.772253D-01

 Vector   18  Occ=2.000000D+00  E=-3.384599D-01

 Vector   19  Occ=2.000000D+00  E=-2.761741D-01

 Vector   20  Occ=2.000000D+00  E=-2.196552D-01

 Vector   21  Occ=0.000000D+00  E=-6.098590D-02

 Vector   22  Occ=0.000000D+00  E= 4.279313D-02

 Vector   23  Occ=0.000000D+00  E= 6.173444D-02

 Vector   24  Occ=0.000000D+00  E= 9.568846D-02

 Vector   25  Occ=0.000000D+00  E= 1.433960D-01

 Vector   26  Occ=0.000000D+00  E= 1.578874D-01

 Vector   27  Occ=0.000000D+00  E= 1.706324D-01

 Vector   28  Occ=0.000000D+00  E= 1.822589D-01

 Vector   29  Occ=0.000000D+00  E= 2.161725D-01

 Vector   30  Occ=0.000000D+00  E= 2.994261D-01

 Vector   31  Occ=0.000000D+00  E= 3.468869D-01

 Vector   32  Occ=0.000000D+00  E= 5.020647D-01

     Multipole analysis of the density
     ---------------------------------

     L   x y z        total         alpha         beta         nuclear
     -   - - -        -----         -----         ----         -------
     0   0 0 0     -0.000000    -20.000000    -20.000000     40.000000

     1   1 0 0     -0.914775     -0.457387     -0.457387      0.000000
     1   0 1 0     -0.593111     -0.296555     -0.296555     -0.000000
     1   0 0 1     -0.956620     -0.478310     -0.478310     -0.000000

     2   2 0 0    -23.290757    -33.511538    -33.511538     43.732318
     2   1 1 0      3.526679     -1.197990     -1.197990      5.922660
     2   1 0 1     -0.959814      0.017864      0.017864     -0.995542
     2   0 2 0    -19.075408   -405.733432   -405.733432    792.391456
     2   0 1 1     -0.018164     -1.699680     -1.699680      3.381197

 Total times  cpu:        5.4s     wall:        5.4s
