 Output coordinates in angstroms (scale by  1.889725989 to convert to a.u.)

  No.       Tag          Charge          X              Y              Z
 ---- ---------------- ---------- -------------- -------------- --------------
    1 C                    6.0000    -0.20203420     1.89735135    -0.36406510
    2 H                    1.0000    -0.88029357     1.84989410    -1.20774292
    3 C                    6.0000    -0.26908957     2.82054821     0.59568365
    4 H                    1.0000    -1.03716866     3.58704789     0.56241935
    5 H                    1.0000     0.42386187     2.84328234     1.42868070
    6 O                    8.0000     0.72468204     0.89667598    -0.40921799
    7 H                    1.0000     1.30956759     0.97815063     0.36386790
    8 C                    6.0000    -0.51801153    -2.48364252    -0.22681072
    9 H                    1.0000    -0.72873805    -1.44366908     0.06946771
   10 H                    1.0000    -1.05723390    -2.84192150    -1.11823172
   11 O                    8.0000     0.26342003    -3.19396681     0.39330449

         Total DFT energy =     -268.225146870043

                       DFT Final Molecular Orbital Analysis
                       ------------------------------------

 Vector    5  Occ=2.000000D+00  E=-1.017757D+01

 Vector    6  Occ=2.000000D+00  E=-1.079786D+00

 Vector    7  Occ=2.000000D+00  E=-1.068053D+00

 Vector    8  Occ=2.000000D+00  E=-7.618659D-01

 Vector    9  Occ=2.000000D+00  E=-6.340088D-01

 Vector   10  Occ=2.000000D+00  E=-6.326566D-01

 Vector   11  Occ=2.000000D+00  E=-5.077650D-01

 Vector   12  Occ=2.000000D+00  E=-4.952134D-01

 Vector   13  Occ=2.000000D+00  E=-4.878578D-01

 Vector   14  Occ=2.000000D+00  E=-4.357085D-01

 Vector   15  Occ=2.000000D+00  E=-3.982260D-01

 Vector   16  Occ=2.000000D+00  E=-3.971170D-01

 Vector   17  Occ=2.000000D+00  E=-3.917723D-01

 Vector   18  Occ=2.000000D+00  E=-3.663626D-01

 Vector   19  Occ=2.000000D+00  E=-2.607286D-01

 Vector   20  Occ=2.000000D+00  E=-2.402319D-01

 Vector   21  Occ=0.000000D+00  E=-4.415819D-02

 Vector   22  Occ=0.000000D+00  E= 2.671848D-02

 Vector   23  Occ=0.000000D+00  E= 5.744172D-02

 Vector   24  Occ=0.000000D+00  E= 1.093284D-01

 Vector   25  Occ=0.000000D+00  E= 1.212351D-01

 Vector   26  Occ=0.000000D+00  E= 1.355114D-01

 Vector   27  Occ=0.000000D+00  E= 1.748973D-01

 Vector   28  Occ=0.000000D+00  E= 1.877671D-01

 Vector   29  Occ=0.000000D+00  E= 2.222067D-01

 Vector   30  Occ=0.000000D+00  E= 2.798417D-01

 Vector   31  Occ=0.000000D+00  E= 3.535052D-01

 Vector   32  Occ=0.000000D+00  E= 5.111857D-01

     Multipole analysis of the density
     ---------------------------------

     L   x y z        total         alpha         beta         nuclear
     -   - - -        -----         -----         ----         -------
     0   0 0 0     -0.000000    -20.000000    -20.000000     40.000000

     1   1 0 0     -0.495054     -0.247527     -0.247527     -0.000000
     1   0 1 0      0.939350      0.469675      0.469675      0.000000
     1   0 0 1     -0.049966     -0.024983     -0.024983      0.000000

     2   2 0 0    -20.713379    -32.568488    -32.568488     44.423596
     2   1 1 0      3.012540      0.565301      0.565301      1.881937
     2   1 0 1      2.311096     -1.227153     -1.227153      4.765401
     2   0 2 0    -28.129839   -424.519219   -424.519219    820.908599
     2   0 1 1      3.481186     -4.705354     -4.705354     12.891894

 Total times  cpu:        6.0s     wall:        6.1s
