 Output coordinates in angstroms (scale by  1.889725989 to convert to a.u.)

  No.       Tag          Charge          X              Y              Z
 ---- ---------------- ---------- -------------- -------------- --------------
    1 C                    6.0000    -0.43538990     2.14949916     0.07709952
    2 H                    1.0000    -1.49539185     1.97551096     0.21924044
    3 C                    6.0000     0.11051158     3.35862855    -0.05670713
    4 H                    1.0000    -0.51465442     4.24566042    -0.02644834
    5 H                    1.0000     1.17541178     3.50234893    -0.19782603
    6 O                    8.0000     0.26569623     0.97899714     0.05268088
    7 H                    1.0000     1.20818206     1.18260950    -0.07636742
    8 C                    6.0000    -0.06945124    -2.70562816    -0.11331985
    9 H                    1.0000    -0.57522215    -2.28308765    -0.99614864
   10 H                    1.0000     0.35980182    -1.96990517     0.58539992
   11 O                    8.0000     0.01028503    -3.91251392     0.07853348

         Total SCF energy =   -266.636561281477

 Vector    6  Occ=2.000000D+00  E=-1.423865D+00

 Vector    7  Occ=2.000000D+00  E=-1.404619D+00

 Vector    8  Occ=2.000000D+00  E=-1.041106D+00

 Vector    9  Occ=2.000000D+00  E=-8.610338D-01

 Vector   10  Occ=2.000000D+00  E=-8.436144D-01

 Vector   11  Occ=2.000000D+00  E=-6.886641D-01

 Vector   12  Occ=2.000000D+00  E=-6.853414D-01

 Vector   13  Occ=2.000000D+00  E=-6.812015D-01

 Vector   14  Occ=2.000000D+00  E=-6.270525D-01

 Vector   15  Occ=2.000000D+00  E=-5.896365D-01

 Vector   16  Occ=2.000000D+00  E=-5.549222D-01

 Vector   17  Occ=2.000000D+00  E=-5.492678D-01

 Vector   18  Occ=2.000000D+00  E=-5.146595D-01

 Vector   19  Occ=2.000000D+00  E=-4.294680D-01

 Vector   20  Occ=2.000000D+00  E=-3.620283D-01

 Vector   21  Occ=0.000000D+00  E= 1.336937D-01

 Vector   22  Occ=0.000000D+00  E= 1.777986D-01

 Vector   23  Occ=0.000000D+00  E= 1.999675D-01

 Vector   24  Occ=0.000000D+00  E= 2.537870D-01

 Vector   25  Occ=0.000000D+00  E= 2.609696D-01

 Vector   26  Occ=0.000000D+00  E= 2.805034D-01

 Vector   27  Occ=0.000000D+00  E= 3.238538D-01

 Vector   28  Occ=0.000000D+00  E= 3.418045D-01

 Vector   29  Occ=0.000000D+00  E= 3.816267D-01

 Vector   30  Occ=0.000000D+00  E= 4.535442D-01

 Vector   31  Occ=0.000000D+00  E= 5.119429D-01

       Multipole analysis of the density wrt the origin
       ------------------------------------------------

     L   x y z        total         open         nuclear
     -   - - -        -----         ----         -------
     0   0 0 0     -0.000000      0.000000     40.000000

     1   1 0 0      0.231665      0.000000      0.000000
     1   0 1 0      1.853878      0.000000     -0.000000
     1   0 0 1     -0.253317      0.000000      0.000000

     2   2 0 0    -18.968427      0.000000     27.168324
     2   1 1 0      0.910764      0.000000      1.817845
     2   1 0 1     -0.513558      0.000000      0.254447
     2   0 2 0    -35.849976      0.000000   1121.824306
     2   0 1 1      1.069897      0.000000      1.087264

 Total times  cpu:        0.5s     wall:        0.5s
