 Output coordinates in angstroms (scale by  1.889725989 to convert to a.u.)

  No.       Tag          Charge          X              Y              Z
 ---- ---------------- ---------- -------------- -------------- --------------
    1 C                    6.0000    -0.39915581    -2.20357295    -0.32308384
    2 H                    1.0000    -0.86141917    -2.69978304    -1.16816860
    3 C                    6.0000    -0.96342691    -1.20334150     0.35444250
    4 H                    1.0000    -1.94531553    -0.83770526     0.07022655
    5 H                    1.0000    -0.47675768    -0.72550429     1.19670562
    6 O                    8.0000     0.82792796    -2.73051683    -0.04239102
    7 H                    1.0000     1.20389609    -2.25676952     0.71958175
    8 C                    6.0000     0.66840499     2.75632743     0.05355419
    9 H                    1.0000     0.70918671     1.67443377    -0.15034350
   10 H                    1.0000     1.59041307     3.19698194     0.46523450
   11 O                    8.0000    -0.33479509     3.42450040    -0.16294816

         Total SCF energy =   -266.633170116866

 Vector    6  Occ=2.000000D+00  E=-1.418016D+00

 Vector    7  Occ=2.000000D+00  E=-1.416341D+00

 Vector    8  Occ=2.000000D+00  E=-1.036546D+00

 Vector    9  Occ=2.000000D+00  E=-8.772616D-01

 Vector   10  Occ=2.000000D+00  E=-8.374619D-01

 Vector   11  Occ=2.000000D+00  E=-6.993708D-01

 Vector   12  Occ=2.000000D+00  E=-6.827940D-01

 Vector   13  Occ=2.000000D+00  E=-6.751897D-01

 Vector   14  Occ=2.000000D+00  E=-6.410309D-01

 Vector   15  Occ=2.000000D+00  E=-5.814575D-01

 Vector   16  Occ=2.000000D+00  E=-5.503611D-01

 Vector   17  Occ=2.000000D+00  E=-5.410473D-01

 Vector   18  Occ=2.000000D+00  E=-5.274233D-01

 Vector   19  Occ=2.000000D+00  E=-4.437642D-01

 Vector   20  Occ=2.000000D+00  E=-3.570301D-01

 Vector   21  Occ=0.000000D+00  E= 1.190861D-01

 Vector   22  Occ=0.000000D+00  E= 1.763912D-01

 Vector   23  Occ=0.000000D+00  E= 2.061038D-01

 Vector   24  Occ=0.000000D+00  E= 2.434537D-01

 Vector   25  Occ=0.000000D+00  E= 2.644051D-01

 Vector   26  Occ=0.000000D+00  E= 2.813113D-01

 Vector   27  Occ=0.000000D+00  E= 3.257808D-01

 Vector   28  Occ=0.000000D+00  E= 3.328278D-01

 Vector   29  Occ=0.000000D+00  E= 3.661111D-01

 Vector   30  Occ=0.000000D+00  E= 4.557534D-01

 Vector   31  Occ=0.000000D+00  E= 5.166882D-01

       Multipole analysis of the density wrt the origin
       ------------------------------------------------

     L   x y z        total         open         nuclear
     -   - - -        -----         ----         -------
     0   0 0 0     -0.000000      0.000000     40.000000

     1   1 0 0      0.767643      0.000000      0.000000
     1   0 1 0     -0.258837      0.000000      0.000000
     1   0 0 1      0.539483      0.000000     -0.000000

     2   2 0 0    -21.504648      0.000000     88.638924
     2   1 1 0      7.609844      0.000000     13.878126
     2   1 0 1      2.447449      0.000000      3.192711
     2   0 2 0    -35.294916      0.000000    940.991156
     2   0 1 1      0.933343      0.000000      3.208666

 Total times  cpu:        0.5s     wall:        0.6s
