 Gaussian 09, Revision B.01,
 Gaussian 09:  EM64L-G09RevB.01 12-Aug-2010

 ----------------
 #Opt b3lyp/6-31g
 ----------------

 -------------------
 Title Card Required
 -------------------
 Symbolic Z-matrix:
 Charge =  0 Multiplicity = 1

 SCF Done:  E(RB3LYP) =  -232.391242176     A.U. after   14 cycles
 SCF Done:  E(RB3LYP) =  -232.389295045     A.U. after   14 cycles
 SCF Done:  E(RB3LYP) =  -232.391833369     A.U. after   14 cycles
 SCF Done:  E(RB3LYP) =  -232.391541371     A.U. after   15 cycles
 SCF Done:  E(RB3LYP) =  -232.392303983     A.U. after   15 cycles
 SCF Done:  E(RB3LYP) =  -232.392361036     A.U. after   11 cycles
 SCF Done:  E(RB3LYP) =  -232.392368376     A.U. after   14 cycles
 SCF Done:  E(RB3LYP) =  -232.392369173     A.U. after    8 cycles
 SCF Done:  E(RB3LYP) =  -232.392369316     A.U. after    8 cycles
 SCF Done:  E(RB3LYP) =  -232.392369391     A.U. after    8 cycles
 Optimization completed.
    -- Stationary point found.

                         Standard orientation:
 ---------------------------------------------------------------------
 Center     Atomic      Atomic             Coordinates (Angstroms)
 Number     Number       Type             X           Y           Z
 ---------------------------------------------------------------------
      1          8           0        1.922082   -0.081833    0.256199
      2          1           0        0.958649   -1.725116   -0.451914
      3          6           0        0.917409   -0.649518   -0.186964
      4          6           0       -0.427597    0.010886   -0.414269
      5          6           0       -0.440250    1.475095    0.043476
      6          1           0       -0.290191    1.542561    1.126779
      7          1           0       -1.397830    1.946838   -0.201595
      8          1           0        0.362912    2.044619   -0.433376
      9          6           0       -1.540257   -0.835131    0.250777
     10          1           0       -0.594919   -0.030606   -1.505811
     11          1           0       -1.505825   -1.880297   -0.079638
     12          1           0       -2.525887   -0.432615   -0.004462
     13          1           0       -1.439395   -0.818714    1.342306
 ---------------------------------------------------------------------

 The electronic state is 1-A.
 Alpha  occ. eigenvalues --  -19.15340 -10.27902 -10.20685 -10.18863 -10.17416
 Alpha  occ. eigenvalues --   -1.05664  -0.81271  -0.69814  -0.65525  -0.55552
 Alpha  occ. eigenvalues --   -0.49566  -0.45750  -0.44376  -0.40754  -0.39555
 Alpha  occ. eigenvalues --   -0.38090  -0.37384  -0.35166  -0.34221  -0.25354
 Alpha virt. eigenvalues --   -0.03380   0.08737   0.12258   0.13104   0.14470
 Alpha virt. eigenvalues --    0.14723   0.16210   0.18374   0.19441   0.21495
 Alpha virt. eigenvalues --    0.22353   0.28762   0.30624   0.51607   0.52091

 Mulliken atomic charges:
              1
     1  O   -0.384099
     2  H    0.107092
     3  C    0.234866
     4  C   -0.178234
     5  C   -0.391852
     6  H    0.147292
     7  H    0.130067
     8  H    0.154238
     9  C   -0.410301
    10  H    0.154353
    11  H    0.138346
    12  H    0.149136
    13  H    0.149094
 Sum of Mulliken atomic charges =   0.00000

 Dipole moment (field-independent basis, Debye):
    X=             -2.6677    Y=             -0.7867    Z=             -0.9376  Tot=              2.9351
 Quadrupole moment (field-independent basis, Debye-Ang):
   XX=            -37.5021   YY=            -30.4574   ZZ=            -30.8709
   XY=             -0.6727   XZ=             -1.4368   YZ=              0.1207

 Normal termination of Gaussian 09 at Sun Apr 10 08:47:04 2016.
